integrator  = steep         ; Algorithm (steep = steepest descent minimization)
emtol       = 1000.0        ; Stop minimization when the maximum force < 1000.0 kJ/mol/nm
emstep      = 0.01          ; Minimization step size
nsteps      = 50000         ; Maximum number of (minimization) steps to perform
nstcgsteep  = 10            ; Frequency of performing 1 conjugate gradient step
nstenergy   = 500           ; Write energies to disk every nstenergy steps
cutoff-scheme   = Verlet    ; Buffered neighbor searching
ns_type     = grid          ; Method to determine neighbor list (simple, grid)
coulombtype = PME           ; Treatment of long range electrostatic interactions
rcoulomb    = 1.2           ; Short-range electrostatic cut-off
rvdw        = 1.2           ; Short-range Van der Waals cut-off
pbc         = xyz           ; Periodic Boundary Conditions in all 3 dimensions
