define      = -DPOSRES      ; position restrain the protein
integrator  = md            ; leap-frog integrator
nsteps      = 50000         ; 2 * 50000 = 100 ps
dt          = 0.002         ; 2 fs
nstxout     = 500           ; save coordinates every 1.0 ps
nstvout     = 500           ; save velocities every 1.0 ps
nstenergy   = 500           ; save energies every 1.0 ps
nstlog      = 500           ; update log file every 1.0 ps
cutoff-scheme   = Verlet    ; Buffered neighbor searching
ns_type     = grid          ; Method to determine neighbor list (simple, grid)
nstlist     = 10            ; Frequency to update the neighbor list and long range forces
rcoulomb    = 1.2           ; short-range electrostatic cutoff (in nm)
rvdw        = 1.2           ; short-range van der Waals cutoff (in nm)
coulombtype = PME           ; Particle Mesh Ewald for long-range electrostatics
pme_order   = 4             ; cubic interpolation
fourierspacing  = 0.16      ; grid spacing for FFT
tcoupl      = V-rescale     ; modified Berendsen thermostat
tc-grps     = Protein Non-Protein   ; two coupling groups - more accurate
tau_t       = 0.1     0.1   ; time constant, in ps
ref_t       = 300     300   ; reference temperature, one for each group, in K
pbc         = xyz           ; 3-D PBC
DispCorr    = EnerPres      ; account for cut-off vdW scheme
gen_vel     = yes           ; assign velocities from Maxwell distribution
gen_temp    = 300           ; temperature for Maxwell distribution
gen_seed    = -1            ; generate a random seed
